
                                 *****************
                                 * O   R   C   A *
                                 *****************

                                            #,                                       
                                            ###                                      
                                            ####                                     
                                            #####                                    
                                            ######                                   
                                           ########,                                 
                                     ,,################,,,,,                         
                               ,,#################################,,                 
                          ,,##########################################,,             
                       ,#########################################, ''#####,          
                    ,#############################################,,   '####,        
                  ,##################################################,,,,####,       
                ,###########''''           ''''###############################       
              ,#####''   ,,,,##########,,,,          '''####'''          '####       
            ,##' ,,,,###########################,,,                        '##       
           ' ,,###''''                  '''############,,,                           
         ,,##''                                '''############,,,,        ,,,,,,###''
      ,#''                                            '''#######################'''  
     '                                                          ''''####''''         
             ,#######,   #######,   ,#######,      ##                                
            ,#'     '#,  ##    ##  ,#'     '#,    #''#        ######   ,####,        
            ##       ##  ##   ,#'  ##            #'  '#       #        #'  '#        
            ##       ##  #######   ##           ,######,      #####,   #    #        
            '#,     ,#'  ##    ##  '#,     ,#' ,#      #,         ##   #,  ,#        
             '#######'   ##     ##  '#######'  #'      '#     #####' # '####'        



                  #######################################################
                  #                        -***-                        #
                  #          Department of theory and spectroscopy      #
                  #    Directorship and core code : Frank Neese         #
                  #        Max Planck Institute fuer Kohlenforschung    #
                  #                Kaiser Wilhelm Platz 1               #
                  #                 D-45470 Muelheim/Ruhr               #
                  #                      Germany                        #
                  #                                                     #
                  #                  All rights reserved                #
                  #                        -***-                        #
                  #######################################################


                         Program Version 5.0.4 -  RELEASE  -


 With contributions from (in alphabetic order):
   Daniel Aravena         : Magnetic Suceptibility
   Michael Atanasov       : Ab Initio Ligand Field Theory (pilot matlab implementation)
   Alexander A. Auer      : GIAO ZORA, VPT2 properties, NMR spectrum
   Ute Becker             : Parallelization
   Giovanni Bistoni       : ED, misc. LED, open-shell LED, HFLD
   Martin Brehm           : Molecular dynamics
   Dmytro Bykov           : SCF Hessian
   Vijay G. Chilkuri      : MRCI spin determinant printing, contributions to CSF-ICE
   Dipayan Datta          : RHF DLPNO-CCSD density
   Achintya Kumar Dutta   : EOM-CC, STEOM-CC
   Dmitry Ganyushin       : Spin-Orbit,Spin-Spin,Magnetic field MRCI
   Miquel Garcia          : C-PCM and meta-GGA Hessian, CC/C-PCM, Gaussian charge scheme
   Yang Guo               : DLPNO-NEVPT2, F12-NEVPT2, CIM, IAO-localization
   Andreas Hansen         : Spin unrestricted coupled pair/coupled cluster methods
   Benjamin Helmich-Paris : MC-RPA, TRAH-SCF, COSX integrals
   Lee Huntington         : MR-EOM, pCC
   Robert Izsak           : Overlap fitted RIJCOSX, COSX-SCS-MP3, EOM
   Marcus Kettner         : VPT2
   Christian Kollmar      : KDIIS, OOCD, Brueckner-CCSD(T), CCSD density, CASPT2, CASPT2-K
   Simone Kossmann        : Meta GGA functionals, TD-DFT gradient, OOMP2, MP2 Hessian
   Martin Krupicka        : Initial AUTO-CI
   Lucas Lang             : DCDCAS
   Marvin Lechner         : AUTO-CI (C++ implementation), FIC-MRCC
   Dagmar Lenk            : GEPOL surface, SMD
   Dimitrios Liakos       : Extrapolation schemes; Compound Job, initial MDCI parallelization
   Dimitrios Manganas     : Further ROCIS development; embedding schemes
   Dimitrios Pantazis     : SARC Basis sets
   Anastasios Papadopoulos: AUTO-CI, single reference methods and gradients
   Taras Petrenko         : DFT Hessian,TD-DFT gradient, ASA, ECA, R-Raman, ABS, FL, XAS/XES, NRVS
   Peter Pinski           : DLPNO-MP2, DLPNO-MP2 Gradient
   Christoph Reimann      : Effective Core Potentials
   Marius Retegan         : Local ZFS, SOC
   Christoph Riplinger    : Optimizer, TS searches, QM/MM, DLPNO-CCSD(T), (RO)-DLPNO pert. Triples
   Tobias Risthaus        : Range-separated hybrids, TD-DFT gradient, RPA, STAB
   Michael Roemelt        : Original ROCIS implementation
   Masaaki Saitow         : Open-shell DLPNO-CCSD energy and density
   Barbara Sandhoefer     : DKH picture change effects
   Avijit Sen             : IP-ROCIS
   Kantharuban Sivalingam : CASSCF convergence, NEVPT2, FIC-MRCI
   Bernardo de Souza      : ESD, SOC TD-DFT
   Georgi Stoychev        : AutoAux, RI-MP2 NMR, DLPNO-MP2 response
   Willem Van den Heuvel  : Paramagnetic NMR
   Boris Wezisla          : Elementary symmetry handling
   Frank Wennmohs         : Technical directorship


 We gratefully acknowledge several colleagues who have allowed us to
 interface, adapt or use parts of their codes:
   Stefan Grimme, W. Hujo, H. Kruse, P. Pracht,  : VdW corrections, initial TS optimization,
                  C. Bannwarth, S. Ehlert          DFT functionals, gCP, sTDA/sTD-DF
   Ed Valeev, F. Pavosevic, A. Kumar             : LibInt (2-el integral package), F12 methods
   Garnet Chan, S. Sharma, J. Yang, R. Olivares  : DMRG
   Ulf Ekstrom                                   : XCFun DFT Library
   Mihaly Kallay                                 : mrcc  (arbitrary order and MRCC methods)
   Jiri Pittner, Ondrej Demel                    : Mk-CCSD
   Frank Weinhold                                : gennbo (NPA and NBO analysis)
   Christopher J. Cramer and Donald G. Truhlar   : smd solvation model
   Lars Goerigk                                  : TD-DFT with DH, B97 family of functionals
   V. Asgeirsson, H. Jonsson                     : NEB implementation
   FAccTs GmbH                                   : IRC, NEB, NEB-TS, DLPNO-Multilevel, CI-OPT
                                                   MM, QMMM, 2- and 3-layer-ONIOM, Crystal-QMMM,
                                                   LR-CPCM, SF, NACMEs, symmetry and pop. for TD-DFT,
                                                   nearIR, NL-DFT gradient (VV10), updates on ESD,
                                                   ML-optimized integration grids
   S Lehtola, MJT Oliveira, MAL Marques          : LibXC Library
   Liviu Ungur et al                             : ANISO software


 Your calculation uses the libint2 library for the computation of 2-el integrals
 For citations please refer to: http://libint.valeyev.net

 Your ORCA version has been built with support for libXC version: 5.1.0
 For citations please refer to: https://tddft.org/programs/libxc/

 This ORCA versions uses:
   CBLAS   interface :  Fast vector & matrix operations
   LAPACKE interface :  Fast linear algebra routines
   SCALAPACK package :  Parallel linear algebra routines
   Shared memory     :  Shared parallel matrices
   BLAS/LAPACK       :  OpenBLAS 0.3.15  USE64BITINT DYNAMIC_ARCH NO_AFFINITY Haswell SINGLE_THREADED
        Core in use  :  Haswell
   Copyright (c) 2011-2014, The OpenBLAS Project


Your calculation utilizes the atom-pairwise dispersion correction
with the Becke-Johnson damping scheme (D3BJ)
Cite in your paper:
S.Grimme, S.Ehrlich, L.Goerigk, J Comput Chem, (2011), 32, 1456–1465 
S.Grimme, J.Antony, S.Ehrlich and H.Krieg, J.Chem.Phys., 132, (2010), 154104 
   

================================================================================

----- Orbital basis set information -----
Your calculation utilizes the basis: pcSseg-2
   F. Jensen, J. Chem. Theory Comput. 11, 132 (2015).

----- AuxJ basis set information -----
Your calculation utilizes the AutoAux generation procedure.
  G. L. Stoychev, A. A. Auer, F. Neese, J. Chem. Theory Comput. 13, 554 (2017)

----- AuxC basis set information -----
Your calculation utilizes the AutoAux generation procedure.
  G. L. Stoychev, A. A. Auer, F. Neese, J. Chem. Theory Comput. 13, 554 (2017)

----- AuxJK basis set information -----
Your calculation utilizes the AutoAux generation procedure.
  G. L. Stoychev, A. A. Auer, F. Neese, J. Chem. Theory Comput. 13, 554 (2017)

================================================================================
                                        WARNINGS
                       Please study these warnings very carefully!
================================================================================


WARNING: Geometry Optimization
  ===> : Switching off AutoStart
         For restart on a previous wavefunction, please use MOREAD

INFO   : the flag for use of the SHARK integral package has been found!



***************************************
The coordinates will be read from file: FES24COMP.xyz
***************************************


Your calculation utilizes the atom-pairwise dispersion correction
with the Becke-Johnson damping scheme (D3BJ)
Cite in your paper:
S.Grimme, S.Ehrlich, L.Goerigk, J Comput Chem, (2011), 32, 1456–1465 
S.Grimme, J.Antony, S.Ehrlich and H.Krieg, J.Chem.Phys., 132, (2010), 154104 
   


Warning: The global flag for chemical shieldings has been found
         but shieldings for certain elements have also been explicitly requested in the EPRNMR block
         ==>> only the requested shieldings will be calculated

================================================================================

----- Orbital basis set information -----
Your calculation utilizes the basis: pcSseg-2
   F. Jensen, J. Chem. Theory Comput. 11, 132 (2015).

----- AuxJ basis set information -----
Your calculation utilizes the AutoAux generation procedure.
  G. L. Stoychev, A. A. Auer, F. Neese, J. Chem. Theory Comput. 13, 554 (2017)

----- AuxC basis set information -----
Your calculation utilizes the AutoAux generation procedure.
  G. L. Stoychev, A. A. Auer, F. Neese, J. Chem. Theory Comput. 13, 554 (2017)

----- AuxJK basis set information -----
Your calculation utilizes the AutoAux generation procedure.
  G. L. Stoychev, A. A. Auer, F. Neese, J. Chem. Theory Comput. 13, 554 (2017)

================================================================================
                                        WARNINGS
                       Please study these warnings very carefully!
================================================================================


INFO   : the flag for use of the SHARK integral package has been found!

================================================================================
                                       INPUT FILE
================================================================================
NAME = FES24COMP.inp
|  1> %pal nprocs 28 end
|  2> !B3LYP PCSSEG-2 D3BJ AUTOAUX CPCM(CHLOROFORM) verytightopt FREQ
|  3> 
|  4> %maxcore 3000
|  5> 
|  6> * xyz 0 1
|  7> C     0.224815191962      0.452452866402      0.762658717552
|  8> C    -0.500900872169      1.318288750691      0.018531716463
|  9> C     1.626384773389      2.343140051876      1.508078681152
| 10> O    -0.218165650372      2.663203991944      0.010791150471
| 11> C     0.806870914169      3.242674769620      0.713988139869
| 12> C     1.338332997115      0.963785018413      1.540319325649
| 13> O     0.937216492516      4.442288615044      0.614672342490
| 14> C     2.690546922864      2.858929386177      2.253863738466
| 15> C     3.464024821099      2.027423553116      3.033183371900
| 16> C     3.186974081594      0.648883820243      3.097143021028
| 17> C     2.126470345855      0.141398490513      2.355971396508
| 18> C     4.007077740388     -0.246010968733      3.938785852840
| 19> C     4.535244345401      0.193295475840      5.157483186917
| 20> H     4.322019640206      1.194085413753      5.504288904905
| 21> C     5.298192917195     -0.648706041449      5.950345051186
| 22> H     5.664113875298     -0.288083541274      6.902012981228
| 23> C     5.570402075639     -1.964037767433      5.556387818549
| 24> C     5.044984639923     -2.400436372046      4.335420093043
| 25> C     4.276962638866     -1.561560551619      3.543608790535
| 26> H     3.908327437102     -1.923630336649      2.593691333953
| 27> C     6.389314245060     -2.860673102263      6.400157180020
| 28> C     7.461248351950     -2.362229655744      7.149294619447
| 29> H     7.706533815663     -1.310488842188      7.096388972742
| 30> C     8.231546062435     -3.205045943157      7.940843112087
| 31> H     9.059854571929     -2.800501372878      8.505543872453
| 32> C     7.945785893225     -4.566024296011      8.000390973965
| 33> H     8.544644812838     -5.222351506818      8.616325529875
| 34> C     6.882188913601     -5.074843039524      7.261069470839
| 35> C     6.112747576420     -4.231686257706      6.469521107230
| 36> H     5.276638338235     -4.636762832519      5.916015897694
| 37> C    -0.127584466852     -0.988753045395      0.842132894158
| 38> C     0.728765809914     -1.960542238158      0.321065803238
| 39> H     1.653558499073     -1.656794177084     -0.151180332582
| 40> C     0.393711026147     -3.307871450294      0.392167061209
| 41> H     1.061944307971     -4.049564908455     -0.023488724202
| 42> C    -0.799551883138     -3.699405139353      0.990995969142
| 43> H    -1.061316054182     -4.747347568169      1.045259033260
| 44> C    -1.653420311752     -2.737428842510      1.521757250588
| 45> C    -1.317721672521     -1.390651846308      1.449505417380
| 46> H    -1.982753981921     -0.641431471426      1.856815094552
| 47> C    -1.658839615448      1.025232097980     -0.841510203279
| 48> C    -1.709663979301     -0.120427846720     -1.641880313728
| 49> H    -0.881448265123     -0.810821937849     -1.646467050173
| 50> C    -2.815983204870     -0.368857191787     -2.441253433758
| 51> H    -2.839048381715     -1.256339817879     -3.059266509893
| 52> C    -3.886308672398      0.519767270476     -2.456243900286
| 53> H    -4.748159490294      0.322136325951     -3.079336525083
| 54> C    -3.838671259893      1.669386576046     -1.673486153299
| 55> C    -2.731147640150      1.925345250364     -0.877312046264
| 56> H    -2.695899140621      2.819964005327     -0.273985807141
| 57> H     1.889409265202     -0.908049471145      2.423226499366
| 58> H     2.896227326044      3.918208894499      2.204376734384
| 59> H     4.297946033167      2.433771580520      3.587720367680
| 60> H    -4.662896528537      2.367855410385     -1.683792894575
| 61> H     5.262574084727     -3.400454988503      3.986090345472
| 62> H     6.645628260132     -6.128803221945      7.305920694283
| 63> H    -2.580210073919     -3.034875573738      1.992883072561
| 64> *
| 65> 
| 66> 
| 67> $new_job
| 68> 
| 69> !B3LYP PCSSEG-2 D3BJ AUTOAUX NMR CPCM(CHLOROFORM)
| 70> 
| 71> * xyzFILE 0 1 FES24COMP.xyz
| 72> 
| 73> 
| 74> %EPRNMR
| 75>      NUCLEI = ALL H {SHIFT, SSALL}
| 76>      NUCLEI = ALL C {SHIFT, SSALL}
| 77> END
| 78> 
| 79> 
| 80> 
| 81> 
| 82> 
| 83> 
| 84> 
| 85>                          ****END OF INPUT****
================================================================================


                 $$$$$$$$$$$$$$$$$$$$$$$$$$$$$$$$$$$$$$$$$$$$$$ 
                 $ THERE ARE  2 JOBS TO BE PROCESSED THIS RUN $
                 $$$$$$$$$$$$$$$$$$$$$$$$$$$$$$$$$$$$$$$$$$$$$$ 




                 $$$$$$$$$$$$$$$$  JOB NUMBER  1 $$$$$$$$$$$$$$


                       *****************************
                       * Geometry Optimization Run *
                       *****************************

Geometry optimization settings:
Update method            Update   .... BFGS
Choice of coordinates    CoordSys .... Z-matrix Internals
Initial Hessian          InHess   .... Almoef's Model

Convergence Tolerances:
Energy Change            TolE     ....  2.0000e-07 Eh
Max. Gradient            TolMAXG  ....  3.0000e-05 Eh/bohr
RMS Gradient             TolRMSG  ....  8.0000e-06 Eh/bohr
Max. Displacement        TolMAXD  ....  2.0000e-04 bohr
RMS Displacement         TolRMSD  ....  1.0000e-04 bohr
Strict Convergence                ....  False
------------------------------------------------------------------------------
                        ORCA OPTIMIZATION COORDINATE SETUP
------------------------------------------------------------------------------

The optimization will be done in new redundant internal coordinates
Making redundant internal coordinates   ...  (new redundants) done
Evaluating the initial hessian          ...  (Almloef) done
Evaluating the coordinates              ...  done
Calculating the B-matrix                .... done
Calculating the G-matrix                .... done
Diagonalizing the G-matrix              .... done
Small eigenvalue found = 9.141e-04
Small eigenvalue found = 2.670e-03
Small eigenvalue found = 3.874e-03
Small eigenvalue found = 6.752e-03
Small eigenvalue found = 9.909e-03
Small eigenvalue found = 1.483e-02
Small eigenvalue found = 1.650e-02
Small eigenvalue found = 2.193e-02
Small eigenvalue found = 2.611e-02
The first mode is                       ....  149
The number of degrees of freedom        ....  165

    -----------------------------------------------------------------
                    Redundant Internal Coordinates


    -----------------------------------------------------------------
         Definition                    Initial Value    Approx d2E/dq
    -----------------------------------------------------------------
      1. B(C   1,C   0)                  1.3528         0.716297   
      2. B(O   3,C   1)                  1.3743         0.592746   
      3. B(C   4,C   2)                  1.4530         0.495623   
      4. B(C   4,O   3)                  1.3715         0.598983   
      5. B(C   5,C   2)                  1.4095         0.581647   
      6. B(C   5,C   0)                  1.4513         0.498898   
      7. B(O   6,C   4)                  1.2108         1.081060   
      8. B(C   7,C   2)                  1.3981         0.606485   
      9. B(C   8,C   7)                  1.3773         0.654590   
     10. B(C   9,C   8)                  1.4076         0.585768   
     11. B(C  10,C   9)                  1.3898         0.625255   
     12. B(C  10,C   5)                  1.4010         0.600077   
     13. B(C  11,C   9)                  1.4771         0.453739   
     14. B(C  12,C  11)                  1.3990         0.604499   
     15. B(H  13,C  12)                  1.0804         0.372991   
     16. B(C  14,C  12)                  1.3855         0.635146   
     17. B(H  15,C  14)                  1.0815         0.371537   
     18. B(C  16,C  14)                  1.3998         0.602736   
     19. B(C  17,C  16)                  1.3990         0.604422   
     20. B(C  18,C  17)                  1.3858         0.634432   
     21. B(C  18,C  11)                  1.3999         0.602518   
     22. B(H  19,C  18)                  1.0814         0.371719   
     23. B(C  20,C  16)                  1.4787         0.451068   
     24. B(C  21,C  20)                  1.3995         0.603292   
     25. B(H  22,C  21)                  1.0813         0.371850   
     26. B(C  23,C  21)                  1.3893         0.626329   
     27. B(H  24,C  23)                  1.0810         0.372156   
     28. B(C  25,C  23)                  1.3919         0.620384   
     29. B(H  26,C  25)                  1.0811         0.372071   
     30. B(C  27,C  25)                  1.3917         0.620987   
     31. B(C  28,C  20)                  1.4003         0.601488   
     32. B(C  28,C  27)                  1.3891         0.626946   
     33. B(H  29,C  28)                  1.0814         0.371590   
     34. B(C  30,C   0)                  1.4858         0.439450   
     35. B(C  31,C  30)                  1.3961         0.610850   
     36. B(H  32,C  31)                  1.0819         0.370968   
     37. B(C  33,C  31)                  1.3902         0.624373   
     38. B(H  34,C  33)                  1.0814         0.371665   
     39. B(C  35,C  33)                  1.3913         0.621774   
     40. B(H  36,C  35)                  1.0815         0.371518   
     41. B(C  37,C  35)                  1.3915         0.621425   
     42. B(C  38,C  37)                  1.3899         0.625108   
     43. B(C  38,C  30)                  1.3953         0.612758   
     44. B(H  39,C  38)                  1.0814         0.371611   
     45. B(C  40,C   1)                  1.4719         0.462523   
     46. B(C  41,C  40)                  1.3985         0.605660   
     47. B(H  42,C  41)                  1.0782         0.375995   
     48. B(C  43,C  41)                  1.3873         0.630978   
     49. B(H  44,C  43)                  1.0817         0.371235   
     50. B(C  45,C  43)                  1.3912         0.622018   
     51. B(H  46,C  45)                  1.0817         0.371240   
     52. B(C  47,C  45)                  1.3916         0.621091   
     53. B(C  48,C  47)                  1.3878         0.629843   
     54. B(C  48,C  40)                  1.4005         0.601210   
     55. B(H  49,C  48)                  1.0796         0.374091   
     56. B(H  50,C  10)                  1.0780         0.376344   
     57. B(H  51,C   7)                  1.0802         0.373304   
     58. B(H  52,C   8)                  1.0808         0.372525   
     59. B(H  53,C  47)                  1.0804         0.372996   
     60. B(H  54,C  17)                  1.0814         0.371666   
     61. B(H  55,C  27)                  1.0811         0.372051   
     62. B(H  56,C  37)                  1.0814         0.371692   
     63. A(C   1,C   0,C  30)          121.5346         0.418807   
     64. A(C   1,C   0,C   5)          118.7415         0.428416   
     65. A(C   5,C   0,C  30)          119.6754         0.392883   
     66. A(C   0,C   1,O   3)          121.2698         0.439015   
     67. A(O   3,C   1,C  40)          110.6954         0.406024   
     68. A(C   0,C   1,C  40)          128.0261         0.422650   
     69. A(C   4,C   2,C   7)          119.4996         0.415382   
     70. A(C   5,C   2,C   7)          120.2909         0.427422   
     71. A(C   4,C   2,C   5)          120.2036         0.412308   
     72. A(C   1,O   3,C   4)          124.3563         0.422362   
     73. A(O   3,C   4,O   6)          117.1956         0.470932   
     74. A(C   2,C   4,O   6)          126.6898         0.457940   
     75. A(C   2,C   4,O   3)          116.1146         0.411786   
     76. A(C   0,C   5,C  10)          122.4653         0.415084   
     77. A(C   2,C   5,C  10)          118.2167         0.426610   
     78. A(C   0,C   5,C   2)          119.2984         0.412790   
     79. A(C   2,C   7,H  51)          118.8338         0.353745   
     80. A(C   8,C   7,H  51)          120.7314         0.358358   
     81. A(C   2,C   7,C   8)          120.4344         0.436594   
     82. A(C   7,C   8,H  52)          119.7789         0.358231   
     83. A(C   9,C   8,H  52)          119.7879         0.351546   
     84. A(C   7,C   8,C   9)          120.4271         0.433870   
     85. A(C   8,C   9,C  10)          118.9197         0.430310   
     86. A(C  10,C   9,C  11)          120.4184         0.411139   
     87. A(C   8,C   9,C  11)          120.6619         0.406418   
     88. A(C   5,C  10,C   9)          121.6955         0.432180   
     89. A(C   9,C  10,H  50)          119.3416         0.356067   
     90. A(C   5,C  10,H  50)          118.9518         0.353594   
     91. A(C  12,C  11,C  18)          117.9193         0.429880   
     92. A(C   9,C  11,C  18)          121.0339         0.408450   
     93. A(C   9,C  11,C  12)          121.0466         0.408687   
     94. A(H  13,C  12,C  14)          119.2031         0.356475   
     95. A(C  11,C  12,C  14)          121.0347         0.433974   
     96. A(C  11,C  12,H  13)          119.7348         0.353498   
     97. A(H  15,C  14,C  16)          119.6824         0.353090   
     98. A(C  12,C  14,H  15)          119.1584         0.356239   
     99. A(C  12,C  14,C  16)          121.1364         0.433746   
    100. A(C  14,C  16,C  17)          117.7555         0.429898   
    101. A(C  17,C  16,C  20)          121.1204         0.408251   
    102. A(C  14,C  16,C  20)          121.1238         0.408049   
    103. A(C  16,C  17,C  18)          121.1953         0.433876   
    104. A(C  16,C  17,H  54)          119.6574         0.353278   
    105. A(C  18,C  17,H  54)          119.1247         0.356192   
    106. A(C  11,C  18,H  19)          119.7962         0.353097   
    107. A(C  11,C  18,C  17)          120.9579         0.433630   
    108. A(C  17,C  18,H  19)          119.2196         0.356201   
    109. A(C  21,C  20,C  28)          118.2580         0.429594   
    110. A(C  16,C  20,C  28)          120.8343         0.407900   
    111. A(C  16,C  20,C  21)          120.9076         0.408116   
    112. A(H  22,C  21,C  23)          119.4836         0.355446   
    113. A(C  20,C  21,C  23)          120.9018         0.432728   
    114. A(C  20,C  21,H  22)          119.6029         0.353195   
    115. A(H  24,C  23,C  25)          120.0565         0.354921   
    116. A(C  21,C  23,C  25)          120.2447         0.434909   
    117. A(C  21,C  23,H  24)          119.6972         0.355495   
    118. A(H  26,C  25,C  27)          120.2688         0.354965   
    119. A(C  23,C  25,C  27)          119.4499         0.434239   
    120. A(C  23,C  25,H  26)          120.2813         0.354907   
    121. A(C  28,C  27,H  55)          119.6161         0.355538   
    122. A(C  25,C  27,H  55)          120.1077         0.354962   
    123. A(C  25,C  27,C  28)          120.2746         0.435062   
    124. A(C  27,C  28,H  29)          119.5087         0.355463   
    125. A(C  20,C  28,H  29)          119.6080         0.352975   
    126. A(C  20,C  28,C  27)          120.8710         0.432572   
    127. A(C   0,C  30,C  38)          120.3303         0.407357   
    128. A(C   0,C  30,C  31)          120.6454         0.407132   
    129. A(C  31,C  30,C  38)          119.0225         0.431993   
    130. A(H  32,C  31,C  33)          120.0289         0.355114   
    131. A(C  30,C  31,C  33)          120.5091         0.433454   
    132. A(C  30,C  31,H  32)          119.4579         0.353798   
    133. A(H  34,C  33,C  35)          120.1586         0.354976   
    134. A(C  31,C  33,C  35)          120.0963         0.434839   
    135. A(C  31,C  33,H  34)          119.7445         0.355227   
    136. A(H  36,C  35,C  37)          120.1470         0.354918   
    137. A(C  33,C  35,C  37)          119.7299         0.434469   
    138. A(C  33,C  35,H  36)          120.1229         0.354952   
    139. A(C  38,C  37,H  56)          119.7482         0.355302   
    140. A(C  35,C  37,H  56)          120.1286         0.354946   
    141. A(C  35,C  37,C  38)          120.1231         0.434887   
    142. A(C  37,C  38,H  39)          120.2128         0.355289   
    143. A(C  30,C  38,H  39)          119.2703         0.354089   
    144. A(C  30,C  38,C  37)          120.5146         0.433789   
    145. A(C  41,C  40,C  48)          118.9519         0.429861   
    146. A(C   1,C  40,C  48)          119.2970         0.409681   
    147. A(C   1,C  40,C  41)          121.7439         0.410217   
    148. A(H  42,C  41,C  43)          119.6978         0.356562   
    149. A(C  40,C  41,C  43)          120.3613         0.433609   
    150. A(C  40,C  41,H  42)          119.9382         0.354094   
    151. A(H  44,C  43,C  45)          120.0986         0.354930   
    152. A(C  41,C  43,C  45)          120.3542         0.435694   
    153. A(C  41,C  43,H  44)          119.5460         0.355792   
    154. A(H  46,C  45,C  47)          120.1463         0.354841   
    155. A(C  43,C  45,C  47)          119.6874         0.434457   
    156. A(C  43,C  45,H  46)          120.1645         0.354931   
    157. A(C  48,C  47,H  53)          119.6725         0.355969   
    158. A(C  45,C  47,H  53)          120.1706         0.355125   
    159. A(C  45,C  47,C  48)          120.1568         0.435436   
    160. A(C  47,C  48,H  49)          119.9656         0.356146   
    161. A(C  40,C  48,H  49)          119.5576         0.353348   
    162. A(C  40,C  48,C  47)          120.4751         0.432895   
    163. D(C  40,C   1,C   0,C  30)     -2.6995         0.036280   
    164. D(O   3,C   1,C   0,C   5)     -1.3344         0.036280   
    165. D(C  40,C   1,C   0,C   5)    179.8419         0.036280   
    166. D(O   3,C   1,C   0,C  30)    176.1242         0.036280   
    167. D(C   4,O   3,C   1,C   0)      1.1248         0.025621   
    168. D(C   4,O   3,C   1,C  40)   -179.8657         0.025621   
    169. D(O   3,C   4,C   2,C   7)   -179.9578         0.016729   
    170. D(O   6,C   4,C   2,C   5)    179.0296         0.016729   
    171. D(O   6,C   4,O   3,C   1)   -179.8796         0.026198   
    172. D(O   6,C   4,C   2,C   7)     -0.0888         0.016729   
    173. D(O   3,C   4,C   2,C   5)     -0.8394         0.016729   
    174. D(C   2,C   4,O   3,C   1)      0.0023         0.026198   
    175. D(C   2,C   5,C   0,C   1)      0.4840         0.016953   
    176. D(C   2,C   5,C   0,C  30)   -177.0229         0.016953   
    177. D(C  10,C   5,C   0,C   1)    178.8398         0.016953   
    178. D(C  10,C   5,C   2,C   7)      1.2910         0.023250   
    179. D(C  10,C   5,C   2,C   4)   -177.8204         0.023250   
    180. D(C   0,C   5,C   2,C   7)    179.7166         0.023250   
    181. D(C   0,C   5,C   2,C   4)      0.6052         0.023250   
    182. D(C  10,C   5,C   0,C  30)      1.3328         0.016953   
    183. D(H  51,C   7,C   2,C   5)    179.4168         0.025387   
    184. D(H  51,C   7,C   2,C   4)     -1.4656         0.025387   
    185. D(C   8,C   7,C   2,C   5)     -0.3529         0.025387   
    186. D(C   8,C   7,C   2,C   4)    178.7647         0.025387   
    187. D(H  52,C   8,C   7,H  51)     -1.1572         0.029864   
    188. D(H  52,C   8,C   7,C   2)    178.6081         0.029864   
    189. D(C   9,C   8,C   7,H  51)    179.7446         0.029864   
    190. D(C   9,C   8,C   7,C   2)     -0.4901         0.029864   
    191. D(C  10,C   9,C   8,H  52)   -178.7379         0.023596   
    192. D(C  11,C   9,C   8,C   7)   -179.5582         0.023596   
    193. D(C  10,C   9,C   8,C   7)      0.3603         0.023596   
    194. D(C  11,C   9,C   8,H  52)      1.3436         0.023596   
    195. D(H  50,C  10,C   9,C  11)      1.7741         0.027080   
    196. D(H  50,C  10,C   9,C   8)   -178.1446         0.027080   
    197. D(C   5,C  10,C   9,C   8)      0.6248         0.027080   
    198. D(C   5,C  10,C   9,C  11)   -179.4565         0.027080   
    199. D(H  50,C  10,C   5,C   2)    177.3377         0.024824   
    200. D(H  50,C  10,C   5,C   0)     -1.0350         0.024824   
    201. D(C   9,C  10,C   5,C   2)     -1.4364         0.024824   
    202. D(C   9,C  10,C   5,C   0)   -179.8091         0.024824   
    203. D(C  18,C  11,C   9,C  10)     34.6842         0.014030   
    204. D(C  18,C  11,C   9,C   8)   -145.3985         0.014030   
    205. D(C  12,C  11,C   9,C  10)   -145.1334         0.014030   
    206. D(C  12,C  11,C   9,C   8)     34.7838         0.014030   
    207. D(C  14,C  12,C  11,C  18)     -0.1907         0.025212   
    208. D(C  14,C  12,C  11,C   9)    179.6325         0.025212   
    209. D(H  13,C  12,C  11,C  18)   -178.2749         0.025212   
    210. D(H  13,C  12,C  11,C   9)      1.5483         0.025212   
    211. D(C  16,C  14,C  12,H  13)    178.3589         0.028000   
    212. D(C  16,C  14,C  12,C  11)      0.2647         0.028000   
    213. D(H  15,C  14,C  12,H  13)      0.1020         0.028000   
    214. D(H  15,C  14,C  12,C  11)   -177.9922         0.028000   
    215. D(C  20,C  16,C  14,H  15)     -2.0056         0.025057   
    216. D(C  20,C  16,C  14,C  12)    179.7466         0.025057   
    217. D(C  17,C  16,C  14,H  15)    178.1878         0.025057   
    218. D(C  17,C  16,C  14,C  12)     -0.0601         0.025057   
    219. D(H  54,C  17,C  16,C  20)     -1.7629         0.025205   
    220. D(H  54,C  17,C  16,C  14)    178.0438         0.025205   
    221. D(C  18,C  17,C  16,C  20)    179.9798         0.025205   
    222. D(C  18,C  17,C  16,C  14)     -0.2136         0.025205   
    223. D(H  19,C  18,C  11,C   9)      1.9757         0.025038   
    224. D(C  17,C  18,C  11,C  12)     -0.0822         0.025038   
    225. D(C  17,C  18,C  11,C   9)   -179.9054         0.025038   
    226. D(H  19,C  18,C  17,H  54)      0.1512         0.027933   
    227. D(H  19,C  18,C  17,C  16)    178.4177         0.027933   
    228. D(C  11,C  18,C  17,H  54)   -177.9784         0.027933   
    229. D(C  11,C  18,C  17,C  16)      0.2880         0.027933   
    230. D(H  19,C  18,C  11,C  12)   -178.2011         0.025038   
    231. D(C  28,C  20,C  16,C  17)    -35.1210         0.013868   
    232. D(C  28,C  20,C  16,C  14)    145.0789         0.013868   
    233. D(C  21,C  20,C  16,C  17)    144.8286         0.013868   
    234. D(C  21,C  20,C  16,C  14)    -34.9715         0.013868   
    235. D(C  23,C  21,C  20,C  28)      0.0251         0.025106   
    236. D(C  23,C  21,C  20,C  16)   -179.9257         0.025106   
    237. D(H  22,C  21,C  20,C  28)    178.7727         0.025106   
    238. D(H  22,C  21,C  20,C  16)     -1.1781         0.025106   
    239. D(C  25,C  23,C  21,H  22)   -178.7611         0.027179   
    240. D(C  25,C  23,C  21,C  20)     -0.0120         0.027179   
    241. D(H  24,C  23,C  21,H  22)      0.7760         0.027179   
    242. D(H  24,C  23,C  21,C  20)    179.5250         0.027179   
    243. D(C  27,C  25,C  23,H  24)   -179.5594         0.026634   
    244. D(C  27,C  25,C  23,C  21)     -0.0240         0.026634   
    245. D(H  26,C  25,C  23,H  24)      0.4800         0.026634   
    246. D(H  26,C  25,C  23,C  21)   -179.9846         0.026634   
    247. D(H  55,C  27,C  25,H  26)      0.4755         0.026689   
    248. D(H  55,C  27,C  25,C  23)   -179.4851         0.026689   
    249. D(C  28,C  27,C  25,H  26)   -179.9929         0.026689   
    250. D(C  28,C  27,C  25,C  23)      0.0465         0.026689   
    251. D(H  29,C  28,C  27,H  55)      0.7840         0.027236   
    252. D(H  29,C  28,C  27,C  25)   -178.7499         0.027236   
    253. D(C  20,C  28,C  27,H  55)    179.5005         0.027236   
    254. D(C  20,C  28,C  27,C  25)     -0.0334         0.027236   
    255. D(H  29,C  28,C  20,C  21)    178.7128         0.024948   
    256. D(H  29,C  28,C  20,C  16)     -1.3364         0.024948   
    257. D(C  27,C  28,C  20,C  21)     -0.0025         0.024948   
    258. D(C  27,C  28,C  20,C  16)    179.9484         0.024948   
    259. D(C  38,C  30,C   0,C   5)    111.3221         0.013178   
    260. D(C  38,C  30,C   0,C   1)    -66.1132         0.013178   
    261. D(C  31,C  30,C   0,C   5)    -68.1878         0.013178   
    262. D(C  31,C  30,C   0,C   1)    114.3769         0.013178   
    263. D(C  33,C  31,C  30,C  38)      0.7433         0.025775   
    264. D(C  33,C  31,C  30,C   0)   -179.7404         0.025775   
    265. D(H  32,C  31,C  30,C  38)   -179.9850         0.025775   
    266. D(H  32,C  31,C  30,C   0)     -0.4687         0.025775   
    267. D(C  35,C  33,C  31,H  32)   -179.5590         0.026999   
    268. D(C  35,C  33,C  31,C  30)     -0.2915         0.026999   
    269. D(H  34,C  33,C  31,H  32)      0.1747         0.026999   
    270. D(H  34,C  33,C  31,C  30)    179.4423         0.026999   
    271. D(C  37,C  35,C  33,H  34)   -179.9351         0.026761   
    272. D(C  37,C  35,C  33,C  31)     -0.2024         0.026761   
    273. D(H  36,C  35,C  33,H  34)      0.1781         0.026761   
    274. D(H  36,C  35,C  33,C  31)    179.9107         0.026761   
    275. D(H  56,C  37,C  35,H  36)      0.1826         0.026729   
    276. D(H  56,C  37,C  35,C  33)   -179.7042         0.026729   
    277. D(C  38,C  37,C  35,H  36)   -179.8785         0.026729   
    278. D(C  38,C  37,C  35,C  33)      0.2347         0.026729   
    279. D(H  39,C  38,C  37,H  56)     -0.3886         0.027067   
    280. D(H  39,C  38,C  37,C  35)    179.6723         0.027067   
    281. D(C  30,C  38,C  37,H  56)   -179.8339         0.027067   
    282. D(C  30,C  38,C  37,C  35)      0.2270         0.027067   
    283. D(H  39,C  38,C  30,C  31)    179.8385         0.025945   
    284. D(H  39,C  38,C  30,C   0)      0.3206         0.025945   
    285. D(C  37,C  38,C  30,C  31)     -0.7110         0.025945   
    286. D(C  37,C  38,C  30,C   0)    179.7711         0.025945   
    287. D(C  48,C  40,C   1,C   0)    141.1132         0.014571   
    288. D(C  41,C  40,C   1,O   3)    141.2023         0.014571   
    289. D(C  41,C  40,C   1,C   0)    -39.8724         0.014571   
    290. D(C  48,C  40,C   1,O   3)    -37.8120         0.014571   
    291. D(C  43,C  41,C  40,C  48)     -1.0211         0.025314   
    292. D(C  43,C  41,C  40,C   1)    179.9613         0.025314   
    293. D(H  42,C  41,C  40,C  48)    178.3821         0.025314   
    294. D(H  42,C  41,C  40,C   1)     -0.6356         0.025314   
    295. D(C  45,C  43,C  41,H  42)   -179.3430         0.027610   
    296. D(C  45,C  43,C  41,C  40)      0.0615         0.027610   
    297. D(H  44,C  43,C  41,H  42)      0.2611         0.027610   
    298. D(H  44,C  43,C  41,C  40)    179.6657         0.027610   
    299. D(C  47,C  45,C  43,H  44)   -179.0076         0.026783   
    300. D(C  47,C  45,C  43,C  41)      0.5944         0.026783   
    301. D(H  46,C  45,C  43,H  44)      0.5079         0.026783   
    302. D(H  46,C  45,C  43,C  41)   -179.8901         0.026783   
    303. D(H  53,C  47,C  45,H  46)      0.1093         0.026699   
    304. D(H  53,C  47,C  45,C  43)    179.6249         0.026699   
    305. D(C  48,C  47,C  45,H  46)   -179.7897         0.026699   
    306. D(C  48,C  47,C  45,C  43)     -0.2741         0.026699   
    307. D(H  49,C  48,C  47,H  53)     -0.1203         0.027505   
    308. D(H  49,C  48,C  47,C  45)    179.7792         0.027505   
    309. D(C  40,C  48,C  47,H  53)    179.3984         0.027505   
    310. D(C  40,C  48,C  47,C  45)     -0.7021         0.027505   
    311. D(H  49,C  48,C  40,C  41)   -179.1376         0.024923   
    312. D(H  49,C  48,C  40,C   1)     -0.0955         0.024923   
    313. D(C  47,C  48,C  40,C  41)      1.3418         0.024923   
    314. D(C  47,C  48,C  40,C   1)   -179.6161         0.024923   
    -----------------------------------------------------------------

Number of atoms                         .... 57
Number of degrees of freedom            .... 314

         *************************************************************
         *                GEOMETRY OPTIMIZATION CYCLE   1            *
         *************************************************************
---------------------------------
CARTESIAN COORDINATES (ANGSTROEM)
---------------------------------
  C      0.224815    0.452453    0.762659
  C     -0.500901    1.318289    0.018532
  C      1.626385    2.343140    1.508079
  O     -0.218166    2.663204    0.010791
  C      0.806871    3.242675    0.713988
  C      1.338333    0.963785    1.540319
  O      0.937216    4.442289    0.614672
  C      2.690547    2.858929    2.253864
  C      3.464025    2.027424    3.033183
  C      3.186974    0.648884    3.097143
  C      2.126470    0.141398    2.355971
  C      4.007078   -0.246011    3.938786
  C      4.535244    0.193295    5.157483
  H      4.322020    1.194085    5.504289
  C      5.298193   -0.648706    5.950345
  H      5.664114   -0.288084    6.902013
  C      5.570402   -1.964038    5.556388
  C      5.044985   -2.400436    4.335420
  C      4.276963   -1.561561    3.543609
  H      3.908327   -1.923630    2.593691
  C      6.389314   -2.860673    6.400157
  C      7.461248   -2.362230    7.149295
  H      7.706534   -1.310489    7.096389
  C      8.231546   -3.205046    7.940843
  H      9.059855   -2.800501    8.505544
  C      7.945786   -4.566024    8.000391
  H      8.544645   -5.222352    8.616326
  C      6.882189   -5.074843    7.261069
  C      6.112748   -4.231686    6.469521
  H      5.276638   -4.636763    5.916016
  C     -0.127584   -0.988753    0.842133
  C      0.728766   -1.960542    0.321066
  H      1.653558   -1.656794   -0.151180
  C      0.393711   -3.307871    0.392167
  H      1.061944   -4.049565   -0.023489
  C     -0.799552   -3.699405    0.990996
  H     -1.061316   -4.747348    1.045259
  C     -1.653420   -2.737429    1.521757
  C     -1.317722   -1.390652    1.449505
  H     -1.982754   -0.641431    1.856815
  C     -1.658840    1.025232   -0.841510
  C     -1.709664   -0.120428   -1.641880
  H     -0.881448   -0.810822   -1.646467
  C     -2.815983   -0.368857   -2.441253
  H     -2.839048   -1.256340   -3.059267
  C     -3.886309    0.519767   -2.456244
  H     -4.748159    0.322136   -3.079337
  C     -3.838671    1.669387   -1.673486
  C     -2.731148    1.925345   -0.877312
  H     -2.695899    2.819964   -0.273986
  H      1.889409   -0.908049    2.423226
  H      2.896227    3.918209    2.204377
  H      4.297946    2.433772    3.587720
  H     -4.662897    2.367855   -1.683793
  H      5.262574   -3.400455    3.986090
  H      6.645628   -6.128803    7.305921
  H     -2.580210   -3.034876    1.992883

----------------------------
CARTESIAN COORDINATES (A.U.)
----------------------------
  NO LB      ZA    FRAG     MASS         X           Y           Z
   0 C     6.0000    0    12.011    0.424839    0.855012    1.441216
   1 C     6.0000    0    12.011   -0.946565    2.491205    0.035020
   2 C     6.0000    0    12.011    3.073422    4.427893    2.849856
   3 O     8.0000    0    15.999   -0.412273    5.032726    0.020392
   4 C     6.0000    0    12.011    1.524765    6.127767    1.349242
   5 C     6.0000    0    12.011    2.529083    1.821290    2.910782
   6 O     8.0000    0    15.999    1.771082    8.394709    1.161562
   7 C     6.0000    0    12.011    5.084397    5.402594    4.259185
   8 C     6.0000    0    12.011    6.546058    3.831275    5.731886
   9 C     6.0000    0    12.011    6.022508    1.226213    5.852752
  10 C     6.0000    0    12.011    4.018447    0.267204    4.452141
  11 C     6.0000    0    12.011    7.572280   -0.464893    7.443227
  12 C     6.0000    0    12.011    8.570370    0.365276    9.746231
  13 H     1.0000    0     1.008    8.167433    2.256494   10.401599
  14 C     6.0000    0    12.011   10.012134   -1.225877   11.244523
  15 H     1.0000    0     1.008   10.703624   -0.544399   13.042914
  16 C     6.0000    0    12.011   10.526534   -3.711493   10.500051
  17 C     6.0000    0    12.011    9.533639   -4.536167    8.192757
  18 C     6.0000    0    12.011    8.082288   -2.950922    6.696450
  19 H     1.0000    0     1.008    7.385668   -3.635135    4.901366
  20 C     6.0000    0    12.011   12.074054   -5.405889   12.094544
  21 C     6.0000    0    12.011   14.099716   -4.463967   13.510209
  22 H     1.0000    0     1.008   14.563238   -2.476465   13.410232
  23 C     6.0000    0    12.011   15.555368   -6.056659   15.006019
  24 H     1.0000    0     1.008   17.120644   -5.292181   16.073149
  25 C     6.0000    0    12.011   15.015359   -8.628535   15.118548
  26 H     1.0000    0     1.008   16.147039   -9.868814   16.282496
  27 C     6.0000    0    12.011   13.005452   -9.590064   13.721433
  28 C     6.0000    0    12.011   11.551419   -7.996728   12.225623
  29 H     1.0000    0     1.008    9.971401   -8.762212   11.179650
  30 C     6.0000    0    12.011   -0.241100   -1.868472    1.591401
  31 C     6.0000    0    12.011    1.377168   -3.704888    0.606726
  32 H     1.0000    0     1.008    3.124773   -3.130887   -0.285689
  33 C     6.0000    0    12.011    0.744006   -6.250971    0.741088
  34 H     1.0000    0     1.008    2.006784   -7.652569   -0.044387
  35 C     6.0000    0    12.011   -1.510934   -6.990863    1.872711
  36 H     1.0000    0     1.008   -2.005597   -8.971187    1.975253
  37 C     6.0000    0    12.011   -3.124512   -5.172991    2.875704
  38 C     6.0000    0    12.011   -2.490133   -2.627951    2.739168
  39 H     1.0000    0     1.008   -3.746862   -1.212130    3.508872
  40 C     6.0000    0    12.011   -3.134753    1.937408   -1.590224
  41 C     6.0000    0    12.011   -3.230797   -0.227576   -3.102704
  42 H     1.0000    0     1.008   -1.665696   -1.532231   -3.111372
  43 C     6.0000    0    12.011   -5.321437   -0.697039   -4.613300
  44 H     1.0000    0     1.008   -5.365024   -2.374138   -5.781176
  45 C     6.0000    0    12.011   -7.344059    0.982218   -4.641628
  46 H     1.0000    0     1.008   -8.972721    0.608749   -5.819103
  47 C     6.0000    0    12.011   -7.254037    3.154683   -3.162431
  48 C     6.0000    0    12.011   -5.161121    3.638375   -1.657880
  49 H     1.0000    0     1.008   -5.094511    5.328960   -0.517758
  50 H     1.0000    0     1.008    3.570466   -1.715965    4.579234
  51 H     1.0000    0     1.008    5.473076    7.404342    4.165668
  52 H     1.0000    0     1.008    8.121941    4.599162    6.779809
  53 H     1.0000    0     1.008   -8.811597    4.474598   -3.181907
  54 H     1.0000    0     1.008    9.944824   -6.425929    7.532619
  55 H     1.0000    0     1.008   12.558417  -11.581760   13.806189
  56 H     1.0000    0     1.008   -4.875890   -5.735084    3.766003

--------------------------------
INTERNAL COORDINATES (ANGSTROEM)
--------------------------------
 C      0   0   0     0.000000000000     0.00000000     0.00000000
 C      1   0   0     1.352797315938     0.00000000     0.00000000
 C      1   2   0     2.468753986737    88.88143434     0.00000000
 O      2   1   3     1.374334794787   121.26979089   358.90663368
 C      4   2   1     1.371485452611   124.35634704     1.12483741
 C      3   1   2     1.409479901706    30.84071811   180.42447302
 O      5   4   2     1.210754713200   117.19556314   180.12042388
 C      3   1   2     1.398096945661   151.13094861   179.91768261
 C      8   3   1     1.377319534650   120.43440357   359.94797350
 C      9   8   3     1.407558078406   120.42708014   359.50989475
 C     10   9   8     1.389800313139   118.91967504     0.36027673
 C     10   9   8     1.477081362297   120.66188180   180.44178788
 C     12  10   9     1.398990102531   121.04659400    34.78384493
 H     13  12  10     1.080425601679   119.73484709     1.54829940
 C     13  12  10     1.385527702405   121.03474069   179.63245169
 H     15  13  12     1.081489058790   119.15841042   182.00783676
 C     15  13  12     1.399784867924   121.13635298     0.26469401
 C     17  15  13     1.399024449604   117.75549331   359.93993710
 C     18  17  15     1.385833891556   121.19534167   359.78642970
 H     19  18  17     1.081355452906   119.21960113   178.41765035
 C     17  15  13     1.478688202512   121.12376817   179.74655345
 C     21  17  15     1.399534030327   120.90763414   325.02847651
 H     22  21  17     1.081259776863   119.60292512   358.82192370
 C     22  21  17     1.389333247751   120.90176152   180.07432499
 H     24  22  21     1.081035727902   119.69722020   179.52504177
 C     24  22  21     1.391929200462   120.24465864     0.00000000
 H     26  24  22     1.081097955973   120.28128421   180.01536960
 C     26  24  22     1.391664950266   119.44994405   359.97602247
 C     28  26  24     1.389065204381   120.27463944     0.04647042
 H     29  28  26     1.081449816970   119.50873407   181.25008937
 C      1   2   3     1.485791420246   121.53463275   177.21756288
 C     31   1   2     1.396145030048   120.64538238   114.37685993
 H     32  31   1     1.081906102823   119.45793455   359.53131922
 C     32  31   1     1.390184557131   120.50912589   180.25960631
 H     34  32  31     1.081394764534   119.74453832   179.44227810
 C     34  32  31     1.391319898988   120.09633428   359.70854025
 H     36  34  32     1.081502794949   120.12293854   179.91074674
 C     36  34  32     1.391473042123   119.72993502   359.79756710
 C     38  36  34     1.389864087342   120.12314114     0.23466414
 H     39  38  36     1.081434378870   120.21283260   179.67226668
 C      2   1   3     1.471861555513   128.02607531   180.08292795
 C     41   2   1     1.398467782450   121.74390103   320.12756520
 H     42  41   2     1.078242230869   119.93819391   359.36437828
 C     42  41   2     1.387319989541   120.36133337   179.96125586
 H     44  42  41     1.081710486346   119.54597114   179.66569644
 C     44  42  41     1.391213411184   120.35422171     0.06151656
 H     46  44  42     1.081706633805   120.16452575   180.10991050
 C     46  44  42     1.391619043157   119.68743080     0.59435160
 C     48  46  44     1.387810008596   120.15683427   359.72594993
 H     49  48  46     1.079623880926   119.96557721   179.77922534
 H     11  10   9     1.077989902109   119.34157253   181.85541245
 H      8   3   1     1.080197421112   118.83383209   179.71767860
 H      9   8   3     1.080765741038   119.77893285   178.60814531
 H     48  46  44     1.080422248443   120.17059208   179.62493880
 H     18  17  15     1.081394318595   119.65744797   178.04375190
 H     28  26  24     1.081112686607   120.10766493   180.51486197
 H     38  36  34     1.081375680005   120.12858563   180.29579912

---------------------------
INTERNAL COORDINATES (A.U.)
---------------------------
 C      0   0   0     0.000000000000     0.00000000     0.00000000
 C      1   0   0     2.556416441827     0.00000000     0.00000000
 C      1   2   0     4.665268926959    88.88143434     0.00000000
 O      2   1   3     2.597116378466   121.26979089   358.90663368
 C      4   2   1     2.591731902093   124.35634704     1.12483741
 C      3   1   2     2.663531005490    30.84071811   180.42447302
 O      5   4   2     2.287994823303   117.19556314   180.12042388
 C      3   1   2     2.642020335971   151.13094861   179.91768261
 C      8   3   1     2.602756719388   120.43440357   359.94797350
 C      9   8   3     2.659899285776   120.42708014   359.50989475
 C     10   9   8     2.626341972671   118.91967504     0.36027673
 C     10   9   8     2.791279252260   120.66188180   180.44178788
 C     12  10   9     2.643708157851   121.04659400    34.78384493
 H     13  12  10     2.041708495250   119.73484709     1.54829940
 C     13  12  10     2.618267908507   121.03474069   179.63245169
 H     15  13  12     2.043718137945   119.15841042   182.00783676
 C     15  13  12     2.645210046783   121.13635298     0.26469401
 C     17  15  13     2.643773064412   117.75549331   359.93993710
 C     18  17  15     2.618846522146   121.19534167   359.78642970
 H     19  18  17     2.043465659416   119.21960113   178.41765035
 C     17  15  13     2.794315740208   121.12376817   179.74655345
 C     21  17  15     2.644736032421   120.90763414   325.02847651
 H     22  21  17     2.043284857896   119.60292512   358.82192370
 C     22  21  17     2.625459347002   120.90176152   180.07432499
 H     24  22  21     2.042861466719   119.69722020   179.52504177
 C     24  22  21     2.630364986681   120.24465864     0.00000000
 H     26  24  22     2.042979060732   120.28128421   180.01536960
 C     26  24  22     2.629865626181   119.44994405   359.97602247
 C     28  26  24     2.624952818439   120.27463944     0.04647042
 H     29  28  26     2.043643981652   119.50873407   181.25008937
 C      1   2   3     2.807738876396   121.53463275   177.21756288
 C     31   1   2     2.638331750026   120.64538238   114.37685993
 H     32  31   1     2.044506236953   119.45793455   359.53131922
 C     32  31   1     2.627068088584   120.50912589   180.25960631
 H     34  32  31     2.043539947626   119.74453832   179.44227810
 C     34  32  31     2.629213573762   120.09633428   359.70854025
 H     36  34  32     2.043744095524   120.12293854   179.91074674
 C     36  34  32     2.629502972346   119.72993502   359.79756710
 C     38  36  34     2.626462488448   120.12314114     0.23466414
 H     39  38  36     2.043614807872   120.21283260   179.67226668
 C      2   1   3     2.781415246968   128.02607531   180.08292795
 C     41   2   1     2.642721115943   121.74390103   320.12756520
 H     42  41   2     2.037582522370   119.93819391   359.36437828
 C     42  41   2     2.621654840347   120.36133337   179.96125586
 H     44  42  41     2.044136575386   119.54597114   179.66569644
 C     44  42  41     2.629012340976   120.35422171     0.06151656
 H     46  44  42     2.044129295138   120.16452575   180.10991050
 C     46  44  42     2.629778874317   119.68743080     0.59435160
 C     48  46  44     2.622580842162   120.15683427   359.72594993
 H     49  48  46     2.040193462591   119.96557721   179.77922534
 H     11  10   9     2.037105690119   119.34157253   181.85541245
 H      8   3   1     2.041277296469   118.83383209   179.71767860
 H      9   8   3     2.042351265486   119.77893285   178.60814531
 H     48  46  44     2.041702158552   120.17059208   179.62493880
 H     18  17  15     2.043539104922   119.65744797   178.04375190
 H     28  26  24     2.043006897595   120.10766493   180.51486197
 H     38  36  34     2.043503883092   120.12858563   180.29579912

---------------------
BASIS SET INFORMATION
---------------------
There are 3 groups of distinct atoms

 Group   1 Type C   : 11s7p2d1f contracted to 4s5p2d1f pattern {7211/31111/11/1}
 Group   2 Type O   : 11s7p2d1f contracted to 4s5p2d1f pattern {7211/31111/11/1}
 Group   3 Type H   : 6s3p1d contracted to 3s2p1d pattern {411/21/1}

Atom   0C    basis set group =>   1
Atom   1C    basis set group =>   1
Atom   2C    basis set group =>   1
Atom   3O    basis set group =>   2
Atom   4C    basis set group =>   1
Atom   5C    basis set group =>   1
Atom   6O    basis set group =>   2
Atom   7C    basis set group =>   1
Atom   8C    basis set group =>   1
Atom   9C    basis set group =>   1
Atom  10C    basis set group =>   1
Atom  11C    basis set group =>   1
Atom  12C    basis set group =>   1
Atom  13H    basis set group =>   3
Atom  14C    basis set group =>   1
Atom  15H    basis set group =>   3
Atom  16C    basis set group =>   1
Atom  17C    basis set group =>   1
Atom  18C    basis set group =>   1
Atom  19H    basis set group =>   3
Atom  20C    basis set group =>   1
Atom  21C    basis set group =>   1
Atom  22H    basis set group =>   3
Atom  23C    basis set group =>   1
Atom  24H    basis set group =>   3
Atom  25C    basis set group =>   1
Atom  26H    basis set group =>   3
Atom  27C    basis set group =>   1
Atom  28C    basis set group =>   1
Atom  29H    basis set group =>   3
Atom  30C    basis set group =>   1
Atom  31C    basis set group =>   1
Atom  32H    basis set group =>   3
Atom  33C    basis set group =>   1
Atom  34H    basis set group =>   3
Atom  35C    basis set group =>   1
Atom  36H    basis set group =>   3
Atom  37C    basis set group =>   1
Atom  38C    basis set group =>   1
Atom  39H    basis set group =>   3
Atom  40C    basis set group =>   1
Atom  41C    basis set group =>   1
Atom  42H    basis set group =>   3
Atom  43C    basis set group =>   1
Atom  44H    basis set group =>   3
Atom  45C    basis set group =>   1
Atom  46H    basis set group =>   3
Atom  47C    basis set group =>   1
Atom  48C    basis set group =>   1
Atom  49H    basis set group =>   3
Atom  50H    basis set group =>   3
Atom  51H    basis set group =>   3
Atom  52H    basis set group =>   3
Atom  53H    basis set group =>   3
Atom  54H    basis set group =>   3
Atom  55H    basis set group =>   3
Atom  56H    basis set group =>   3
---------------------------------
AUXILIARY/J BASIS SET INFORMATION
---------------------------------
There are 3 groups of distinct atoms

 Group   1 Type C   : 15s13p12d5f5g contracted to 15s13p12d5f5g pattern {111111111111111/1111111111111/111111111111/11111/11111}
 Group   2 Type O   : 15s13p12d5f5g contracted to 15s13p12d5f5g pattern {111111111111111/1111111111111/111111111111/11111/11111}
 Group   3 Type H   : 12s4p3d2f contracted to 12s4p3d2f pattern {111111111111/1111/111/11}

Atom   0C    basis set group =>   1
Atom   1C    basis set group =>   1
Atom   2C    basis set group =>   1
Atom   3O    basis set group =>   2
Atom   4C    basis set group =>   1
Atom   5C    basis set group =>   1
Atom   6O    basis set group =>   2
Atom   7C    basis set group =>   1
Atom   8C    basis set group =>   1
Atom   9C    basis set group =>   1
Atom  10C    basis set group =>   1
Atom  11C    basis set group =>   1
Atom  12C    basis set group =>   1
Atom  13H    basis set group =>   3
Atom  14C    basis set group =>   1
Atom  15H    basis set group =>   3
Atom  16C    basis set group =>   1
Atom  17C    basis set group =>   1
Atom  18C    basis set group =>   1
Atom  19H    basis set group =>   3
Atom  20C    basis set group =>   1
Atom  21C    basis set group =>   1
Atom  22H    basis set group =>   3
Atom  23C    basis set group =>   1
Atom  24H    basis set group =>   3
Atom  25C    basis set group =>   1
Atom  26H    basis set group =>   3
Atom  27C    basis set group =>   1
Atom  28C    basis set group =>   1
Atom  29H    basis set group =>   3
Atom  30C    basis set group =>   1
Atom  31C    basis set group =>   1
Atom  32H    basis set group =>   3
Atom  33C    basis set group =>   1
Atom  34H    basis set group =>   3
Atom  35C    basis set group =>   1
Atom  36H    basis set group =>   3
Atom  37C    basis set group =>   1
Atom  38C    basis set group =>   1
Atom  39H    basis set group =>   3
Atom  40C    basis set group =>   1
Atom  41C    basis set group =>   1
Atom  42H    basis set group =>   3
Atom  43C    basis set group =>   1
Atom  44H    basis set group =>   3
Atom  45C    basis set group =>   1
Atom  46H    basis set group =>   3
Atom  47C    basis set group =>   1
Atom  48C    basis set group =>   1
Atom  49H    basis set group =>   3
Atom  50H    basis set group =>   3
Atom  51H    basis set group =>   3
Atom  52H    basis set group =>   3
Atom  53H    basis set group =>   3
Atom  54H    basis set group =>   3
Atom  55H    basis set group =>   3
Atom  56H    basis set group =>   3
---------------------------------
AUXILIARY/C BASIS SET INFORMATION
---------------------------------
There are 3 groups of distinct atoms

 Group   1 Type C   : 15s13p12d5f5g contracted to 15s13p12d5f5g pattern {111111111111111/1111111111111/111111111111/11111/11111}
 Group   2 Type O   : 15s13p12d5f5g contracted to 15s13p12d5f5g pattern {111111111111111/1111111111111/111111111111/11111/11111}
 Group   3 Type H   : 12s4p3d2f contracted to 12s4p3d2f pattern {111111111111/1111/111/11}

Atom   0C    basis set group =>   1
Atom   1C    basis set group =>   1
Atom   2C    basis set group =>   1
Atom   3O    basis set group =>   2
Atom   4C    basis set group =>   1
Atom   5C    basis set group =>   1
Atom   6O    basis set group =>   2
Atom   7C    basis set group =>   1
Atom   8C    basis set group =>   1
Atom   9C    basis set group =>   1
Atom  10C    basis set group =>   1
Atom  11C    basis set group =>   1
Atom  12C    basis set group =>   1
Atom  13H    basis set group =>   3
Atom  14C    basis set group =>   1
Atom  15H    basis set group =>   3
Atom  16C    basis set group =>   1
Atom  17C    basis set group =>   1
Atom  18C    basis set group =>   1
Atom  19H    basis set group =>   3
Atom  20C    basis set group =>   1
Atom  21C    basis set group =>   1
Atom  22H    basis set group =>   3
Atom  23C    basis set group =>   1
Atom  24H    basis set group =>   3
Atom  25C    basis set group =>   1
Atom  26H    basis set group =>   3
Atom  27C    basis set group =>   1
Atom  28C    basis set group =>   1
Atom  29H    basis set group =>   3
Atom  30C    basis set group =>   1
Atom  31C    basis set group =>   1
Atom  32H    basis set group =>   3
Atom  33C    basis set group =>   1
Atom  34H    basis set group =>   3
Atom  35C    basis set group =>   1
Atom  36H    basis set group =>   3
Atom  37C    basis set group =>   1
Atom  38C    basis set group =>   1
Atom  39H    basis set group =>   3
Atom  40C    basis set group =>   1
Atom  41C    basis set group =>   1
Atom  42H    basis set group =>   3
Atom  43C    basis set group =>   1
Atom  44H    basis set group =>   3
Atom  45C    basis set group =>   1
Atom  46H    basis set group =>   3
Atom  47C    basis set group =>   1
Atom  48C    basis set group =>   1
Atom  49H    basis set group =>   3
Atom  50H    basis set group =>   3
Atom  51H    basis set group =>   3
Atom  52H    basis set group =>   3
Atom  53H    basis set group =>   3
Atom  54H    basis set group =>   3
Atom  55H    basis set group =>   3
Atom  56H    basis set group =>   3
----------------------------------
AUXILIARY/JK BASIS SET INFORMATION
----------------------------------
There are 3 groups of distinct atoms

 Group   1 Type C   : 15s13p12d5f5g contracted to 15s13p12d5f5g pattern {111111111111111/1111111111111/111111111111/11111/11111}
 Group   2 Type O   : 15s13p12d5f5g contracted to 15s13p12d5f5g pattern {111111111111111/1111111111111/111111111111/11111/11111}
 Group   3 Type H   : 12s4p3d2f contracted to 12s4p3d2f pattern {111111111111/1111/111/11}

Atom   0C    basis set group =>   1
Atom   1C    basis set group =>   1
Atom   2C    basis set group =>   1
Atom   3O    basis set group =>   2
Atom   4C    basis set group =>   1
Atom   5C    basis set group =>   1
Atom   6O    basis set group =>   2
Atom   7C    basis set group =>   1
Atom   8C    basis set group =>   1
Atom   9C    basis set group =>   1
Atom  10C    basis set group =>   1
Atom  11C    basis set group =>   1
Atom  12C    basis set group =>   1
Atom  13H    basis set group =>   3
Atom  14C    basis set group =>   1
Atom  15H    basis set group =>   3
Atom  16C    basis set group =>   1
Atom  17C    basis set group =>   1
Atom  18C    basis set group =>   1
Atom  19H    basis set group =>   3
Atom  20C    basis set group =>   1
Atom  21C    basis set group =>   1
Atom  22H    basis set group =>   3
Atom  23C    basis set group =>   1
Atom  24H    basis set group =>   3
Atom  25C    basis set group =>   1
Atom  26H    basis set group =>   3
Atom  27C    basis set group =>   1
Atom  28C    basis set group =>   1
Atom  29H    basis set group =>   3
Atom  30C    basis set group =>   1
Atom  31C    basis set group =>   1
Atom  32H    basis set group =>   3
Atom  33C    basis set group =>   1
Atom  34H    basis set group =>   3
Atom  35C    basis set group =>   1
Atom  36H    basis set group =>   3
Atom  37C    basis set group =>   1
Atom  38C    basis set group =>   1
Atom  39H    basis set group =>   3
Atom  40C    basis set group =>   1
Atom  41C    basis set group =>   1
Atom  42H    basis set group =>   3
Atom  43C    basis set group =>   1
Atom  44H    basis set group =>   3
Atom  45C    basis set group =>   1
Atom  46H    basis set group =>   3
Atom  47C    basis set group =>   1
Atom  48C    basis set group =>   1
Atom  49H    basis set group =>   3
Atom  50H    basis set group =>   3
Atom  51H    basis set group =>   3
Atom  52H    basis set group =>   3
Atom  53H    basis set group =>   3
Atom  54H    basis set group =>   3
Atom  55H    basis set group =>   3
Atom  56H    basis set group =>   3


           ************************************************************
           *        Program running with 28 parallel MPI-processes    *
           *              working on a common directory               *
           ************************************************************
------------------------------------------------------------------------------
                           ORCA GTO INTEGRAL CALCULATION
                           -- RI-GTO INTEGRALS CHOSEN --
------------------------------------------------------------------------------
------------------------------------------------------------------------------
                   ___                                                        
                  /   \      - P O W E R E D   B Y -                         
                 /     \                                                     
                 |  |  |   _    _      __       _____    __    __             
                 |  |  |  | |  | |    /  \     |  _  \  |  |  /  |          
                  \  \/   | |  | |   /    \    | | | |  |  | /  /          
                 / \  \   | |__| |  /  /\  \   | |_| |  |  |/  /          
                |  |  |   |  __  | /  /__\  \  |    /   |      \           
                |  |  |   | |  | | |   __   |  |    \   |  |\   \          
                \     /   | |  | | |  |  |  |  | |\  \  |  | \   \       
                 \___/    |_|  |_| |__|  |__|  |_| \__\ |__|  \__/        
                                                                              
                      - O R C A' S   B I G   F R I E N D -                    
                                      &                                       
                       - I N T E G R A L  F E E D E R -                       
                                                                              
 v1 FN, 2020, v2 2021                                                         
------------------------------------------------------------------------------


Reading SHARK input file FES24COMP.SHARKINP.tmp ... ok
----------------------
SHARK INTEGRAL PACKAGE
----------------------

Number of atoms                             ...     57
Number of basis functions                   ...   1568
Number of shells                            ...    552
Maximum angular momentum                    ...      3
Integral batch strategy                     ... SHARK/LIBINT Hybrid
RI-J (if used) integral strategy            ... SPLIT-RIJ (Revised 2003 algorithm where possible)
Printlevel                                  ...      1
Contraction scheme used                     ... SEGMENTED contraction
Coulomb Range Separation                    ... NOT USED
Exchange Range Separation                   ... NOT USED
Finite Nucleus Model                        ... NOT USED
Auxiliary Coulomb fitting basis             ... AVAILABLE
   # of basis functions in Aux-J            ...   7956
   # of shells in Aux-J                     ...   2212
   Maximum angular momentum in Aux-J        ...      4
Auxiliary J/K fitting basis                 ... AVAILABLE
   # of basis functions in Aux-JK           ...   7956
   # of shells in Aux-JK                    ...   2212
   Maximum angular momentum in Aux-JK       ...      4
Auxiliary Correlation fitting basis         ... AVAILABLE
   # of basis functions in Aux-C            ...   7956
   # of shells in Aux-C                     ...   2212
   Maximum angular momentum in Aux-C        ...      4
Auxiliary 'external' fitting basis          ... NOT available
Integral threshold                          ...     1.000000e-13
Primitive cut-off                           ...     1.000000e-14
Primitive pair pre-selection threshold      ...     1.000000e-14

Calculating pre-screening integrals         ... done (  0.1 sec) Dimension = 552
Organizing shell pair data                  ... done (  1.0 sec)
Shell pair information
Total number of shell pairs                 ...    152628
Shell pairs after pre-screening             ...     84057
Total number of primitive shell pairs       ...    457519
Primitive shell pairs kept                  ...    162137
          la=0 lb=0:  14103 shell pairs
          la=1 lb=0:  26966 shell pairs
          la=1 lb=1:  12405 shell pairs
          la=2 lb=0:  10463 shell pairs
          la=2 lb=1:   9270 shell pairs
          la=2 lb=2:   1720 shell pairs
          la=3 lb=0:   4061 shell pairs
          la=3 lb=1:   3539 shell pairs
          la=3 lb=2:   1265 shell pairs
          la=3 lb=3:    265 shell pairs

Calculating one electron integrals          ... done (  0.2 sec)
Calculating RI/J V-Matrix + Cholesky decomp.... done (  4.6 sec)
Calculating RI/JK V-Matrix + Cholesky decomp... done (  4.6 sec)
Calculating RI/C V-Matrix + Cholesky decomp.... done (  5.1 sec)
Calculating Nuclear repulsion               ... done (  0.0 sec) ENN=   3162.579916349884 Eh

SHARK setup successfully completed in  16.9 seconds

Maximum memory used throughout the entire GTOINT-calculation: 172.7 MB


           ************************************************************
           *        Program running with 28 parallel MPI-processes    *
           *              working on a common directory               *
           ************************************************************
-------------------------------------------------------------------------------
                                 ORCA SCF
-------------------------------------------------------------------------------

------------
SCF SETTINGS
------------
Hamiltonian:
 Density Functional     Method          .... DFT(GTOs)
 Exchange Functional    Exchange        .... B88
   X-Alpha parameter    XAlpha          ....  0.666667
   Becke's b parameter  XBeta           ....  0.004200
 Correlation Functional Correlation     .... LYP
 LDA part of GGA corr.  LDAOpt          .... VWN-5
 Gradients option       PostSCFGGA      .... off
 Hybrid DFT is turned on
   Fraction HF Exchange ScalHFX         ....  0.200000
   Scaling of DF-GGA-X  ScalDFX         ....  0.720000
   Scaling of DF-GGA-C  ScalDFC         ....  0.810000
   Scaling of DF-LDA-C  ScalLDAC        ....  1.000000
   Perturbative correction              ....  0.000000
   Density functional embedding theory  .... OFF
   NL short-range parameter             ....  4.800000
 RI-approximation to the Coulomb term is turned on
   Number of AuxJ basis functions       .... 7956
   RIJ-COSX (HFX calculated with COS-X)).... on


General Settings:
 Integral files         IntName         .... FES24COMP
 Hartree-Fock type      HFTyp           .... RHF
 Total Charge           Charge          ....    0
 Multiplicity           Mult            ....    1
 Number of Electrons    NEL             ....  236
 Basis Dimension        Dim             .... 1568
 Nuclear Repulsion      ENuc            ....   3162.5799163499 Eh

Convergence Acceleration:
 DIIS                   CNVDIIS         .... on
   Start iteration      DIISMaxIt       ....    12
   Startup error        DIISStart       ....  0.200000
   # of expansion vecs  DIISMaxEq       ....     5
   Bias factor          DIISBfac        ....   1.050
   Max. coefficient     DIISMaxC        ....  10.000
 Trust-Rad. Augm. Hess. CNVTRAH         .... auto
   Auto Start mean grad. ratio tolernc. ....  1.125000
   Auto Start start iteration           ....    20
   Auto Start num. interpolation iter.  ....    10
   Max. Number of Micro iterations      ....    16
   Max. Number of Macro iterations      .... Maxiter - #DIIS iter
   Number of Davidson start vectors     ....     2
   Converg. threshold I  (grad. norm)   ....   1.000e-06
   Converg. threshold II (energy diff.) ....   1.000e-10
   Grad. Scal. Fac. for Micro threshold ....   0.100
   Minimum threshold for Micro iter.    ....   0.010
   NR start threshold (gradient norm)   ....   0.001
   Initial trust radius                 ....   0.400
   Minimum AH scaling param. (alpha)    ....   1.000
   Maximum AH scaling param. (alpha)    .... 1000.000
   Orbital update algorithm             .... Taylor
   White noise on init. David. guess    .... on
   Maximum white noise                  ....   0.010
   Quad. conv. algorithm                .... NR
 SOSCF                  CNVSOSCF        .... on
   Start iteration      SOSCFMaxIt      ....   150
   Startup grad/error   SOSCFStart      ....  0.003300
 Level Shifting         CNVShift        .... on
   Level shift para.    LevelShift      ....    0.2500
   Turn off err/grad.   ShiftErr        ....    0.0010
 Zerner damping         CNVZerner       .... off
 Static damping         CNVDamp         .... on
   Fraction old density DampFac         ....    0.7000
   Max. Damping (<1)    DampMax         ....    0.9800
   Min. Damping (>=0)   DampMin         ....    0.0000
   Turn off err/grad.   DampErr         ....    0.1000
 Fernandez-Rico         CNVRico         .... off

SCF Procedure:
 Maximum # iterations   MaxIter         ....   125
 SCF integral mode      SCFMode         .... Direct
   Integral package                     .... SHARK and LIBINT hybrid scheme
 Reset frequency        DirectResetFreq ....    20
 Integral Threshold     Thresh          ....  1.000e-13 Eh
 Primitive CutOff       TCut            ....  1.000e-14 Eh

Convergence Tolerance:
 Convergence Check Mode ConvCheckMode   .... Total+1el-Energy
 Convergence forced     ConvForced      .... 0
 Energy Change          TolE            ....  1.000e-10 Eh
 1-El. energy change                    ....  1.000e-07 Eh
 Orbital Gradient       TolG            ....  1.000e-06
 Orbital Rotation angle TolX            ....  1.000e-06
 DIIS Error             TolErr          ....  1.000e-10


Diagonalization of the overlap matrix:
Smallest eigenvalue                        ... 7.359e-06
Time for diagonalization                   ...    0.363 sec
Threshold for overlap eigenvalues          ... 1.000e-08
Number of eigenvalues below threshold      ... 0
Time for construction of square roots      ...    0.273 sec
Total time needed                          ...    0.653 sec

Time for model grid setup =    0.398 sec

------------------------------
INITIAL GUESS: MODEL POTENTIAL
------------------------------
Loading Hartree-Fock densities                     ... done
Calculating cut-offs                               ... done
Initializing the effective Hamiltonian             ... done
Setting up the integral package (SHARK)            ... done
Starting the Coulomb interaction                   ... done (   0.8 sec)
Reading the grid                                   ... done
Mapping shells                                     ... done
Starting the XC term evaluation                    ... done (   0.4 sec)
  promolecular density results
     # of electrons  =    235.976156465
     EX              =   -192.711842329
     EC              =     -8.015672705
     EX+EC           =   -200.727515034
Transforming the Hamiltonian                       ... done (   0.2 sec)
Diagonalizing the Hamiltonian                      ... done (   0.4 sec)
Back transforming the eigenvectors                 ... done (   0.1 sec)
Now organizing SCF variables                       ... done
                      ------------------
                      INITIAL GUESS DONE (   2.3 sec)
                      ------------------
-------------------
DFT GRID GENERATION
-------------------

General Integration Accuracy     IntAcc      ... 4.388
Radial Grid Type                 RadialGrid  ... OptM3 with GC (2021)
Angular Grid (max. ang.)         AngularGrid ... 4 (Lebedev-302)
Angular grid pruning method      GridPruning ... 4 (adaptive)
Weight generation scheme         WeightScheme... Becke
Basis function cutoff            BFCut       ... 3.0000e-14
Integration weight cutoff        WCut        ... 1.0000e-14
Angular grids for H and He will be reduced by one unit
Partially contracted basis set               ... off
Rotationally invariant grid construction     ... off

Total number of grid points                  ...   279174
Total number of batches                      ...     4392
Average number of points per batch           ...       63
Average number of grid points per atom       ...     4898
Time for grid setup =    1.707 sec

--------------------
COSX GRID GENERATION
--------------------

GRIDX 1
-------
General Integration Accuracy     IntAcc      ... 3.816
Radial Grid Type                 RadialGrid  ... OptM3 with GC (2021)
Angular Grid (max. ang.)         AngularGrid ... 1 (Lebedev-50)
Angular grid pruning method      GridPruning ... 4 (adaptive)
Weight generation scheme         WeightScheme... Becke
Basis function cutoff            BFCut       ... 3.0000e-14
Integration weight cutoff        WCut        ... 1.0000e-14
Angular grids for H and He will be reduced by one unit
Partially contracted basis set               ... on
Rotationally invariant grid construction     ... off

Total number of grid points                  ...    35336
Total number of batches                      ...      572
Average number of points per batch           ...       61
Average number of grid points per atom       ...      620
UseSFitting                                  ... on

GRIDX 2
-------
General Integration Accuracy     IntAcc      ... 4.020
Radial Grid Type                 RadialGrid  ... OptM3 with GC (2021)
Angular Grid (max. ang.)         AngularGrid ... 2 (Lebedev-110)
Angular grid pruning method      GridPruning ... 4 (adaptive)
Weight generation scheme         WeightScheme... Becke
Basis function cutoff            BFCut       ... 3.0000e-14
Integration weight cutoff        WCut        ... 1.0000e-14
Angular grids for H and He will be reduced by one unit
Partially contracted basis set               ... on
Rotationally invariant grid construction     ... off

Total number of grid points                  ...    77772
Total number of batches                      ...     1242
Average number of points per batch           ...       62
Average number of grid points per atom       ...     1364
UseSFitting                                  ... on

GRIDX 3
-------
General Integration Accuracy     IntAcc      ... 4.338
Radial Grid Type                 RadialGrid  ... OptM3 with GC (2021)
Angular Grid (max. ang.)         AngularGrid ... 3 (Lebedev-194)
Angular grid pruning method      GridPruning ... 4 (adaptive)
Weight generation scheme         WeightScheme... Becke
Basis function cutoff            BFCut       ... 3.0000e-14
Integration weight cutoff        WCut        ... 1.0000e-14
Angular grids for H and He will be reduced by one unit
Partially contracted basis set               ... on
Rotationally invariant grid construction     ... off

Total number of grid points                  ...   169934
Total number of batches                      ...     2686
Average number of points per batch           ...       63
Average number of grid points per atom       ...     2981
UseSFitting                                  ... on

Time for X-Grid setup             =    4.436 sec


--------------------
CPCM SOLVATION MODEL
--------------------
CPCM parameters:
  Epsilon                                         ...       4.9000
[...]
     49 H        0.000      0.000      0.000      0.000      0.135      0.000
     50 H        0.000      0.000      0.000      0.000     -0.328      0.353
     51 H        0.000      0.000      0.000      0.000      0.000      0.000
     52 H        0.000      0.000      0.000      0.000      0.000      0.000
     53 H        0.000      0.000      0.000      0.000      0.000      0.000
     54 H        0.000      0.163     -0.151     -0.164      0.000      0.000
     55 H        6.562    219.142     -1.412      6.967      0.000      0.000
     56 H        0.000      0.000      0.000      0.000      8.182     -1.736
                 32 H       33 C       34 H       35 C       36 H       37 C  
      0 C        3.099      3.598      0.671     -1.297      0.000      3.374
      1 C       -0.453     -0.313      0.000      0.000      0.000     -0.660
      2 C        0.068      0.000      0.000      0.000      0.000      0.000
      4 C        0.000      0.000      0.000      0.000      0.000      0.000
      5 C       -0.494     -0.785      0.000      0.000      0.000     -0.615
      7 C        0.000      0.000      0.000      0.000      0.000      0.000
      8 C        0.000      0.000      0.000      0.000      0.000      0.000
      9 C        0.092      0.000      0.000      0.000      0.000      0.000
     10 C        0.319      0.027     -0.050      0.000      0.000      0.019
     11 C       -0.029      0.000      0.000      0.000      0.000      0.000
     12 C        0.000      0.000      0.000      0.000      0.000      0.000
     13 H        0.000      0.000      0.000      0.000      0.000      0.000
     14 C        0.000      0.000      0.000      0.000      0.000      0.000
     15 H        0.000      0.000      0.000      0.000      0.000      0.000
     16 C        0.000      0.000      0.000      0.000      0.000      0.000
     17 C        0.000      0.000      0.000      0.000      0.000      0.000
     18 C        0.006      0.000      0.000      0.000      0.000      0.000
     19 H        0.041      0.039      0.028      0.000      0.000      0.000
     20 C        0.000      0.000      0.000      0.000      0.000      0.000
     21 C        0.000      0.000      0.000      0.000      0.000      0.000
     22 H        0.000      0.000      0.000      0.000      0.000      0.000
     23 C        0.000      0.000      0.000      0.000      0.000      0.000
     24 H        0.000      0.000      0.000      0.000      0.000      0.000
     25 C        0.000      0.000      0.000      0.000      0.000      0.000
     26 H        0.000      0.000      0.000      0.000      0.000      0.000
     27 C        0.000      0.000      0.000      0.000      0.000      0.000
     28 C        0.000      0.000      0.000      0.000      0.000      0.000
     29 H        0.000      0.000      0.000      0.000      0.000      0.000
     30 C       -1.318     -1.356      8.164     10.792     -1.868     -1.328
     31 C      218.705    266.008     -1.214     -2.706      7.804      8.462
     32 H        0.000     -2.175      6.851      7.855      1.175     -1.304
     33 C       -2.175      0.000    219.395    259.610     -0.855     -1.621
     34 H        6.851    219.395      0.000     -1.353      6.599      7.953
     35 C        7.855    259.610     -1.353      0.000    219.368    259.876
     36 H        1.175     -0.855      6.599    219.368      0.000     -0.947
     37 C       -1.304     -1.621      7.953    259.876     -0.947      0.000
     38 C        6.762      8.704     -1.713     -2.559      7.665    266.152
     39 H        1.823     -1.285      0.760      7.908      1.170     -1.957
     40 C        0.051      0.016      0.000      0.000      0.000      0.023
     41 C       -0.019     -0.006      0.000      0.070      0.000      0.010
     42 H        0.065      0.047      0.017      0.102     -0.046     -0.040
     43 C        0.000      0.000      0.000      0.000      0.000      0.045
     44 H        0.000      0.000      0.000      0.000      0.000      0.031
     45 C        0.000      0.000      0.000      0.000      0.000      0.000
     46 H        0.000      0.000      0.000      0.000      0.000      0.000
     47 C        0.000      0.000      0.000      0.000      0.000      0.000
     48 C        0.000      0.000      0.000      0.000      0.000      0.000
     49 H        0.000      0.000      0.000      0.000      0.000      0.000
     50 H        0.325      0.178     -0.006      0.015      0.000      0.008
     51 H        0.000      0.000      0.000      0.000      0.000      0.000
     52 H        0.000      0.000      0.000      0.000      0.000      0.000
     53 H        0.000      0.000      0.000      0.000      0.000      0.000
     54 H        0.000      0.000      0.000      0.000      0.000      0.000
     55 H        0.000      0.000      0.000      0.000      0.000      0.000
     56 H        0.772      7.929      1.279     -1.289      6.675    218.905
                 38 C       39 H       40 C       41 C       42 H       43 C  
      0 C       -4.333      3.307     -0.038      1.920     -0.536     -0.839
      1 C        3.420     -0.547    228.815     -1.989      3.514      5.147
      2 C       -0.194      0.059     -0.769      0.000      0.000      0.000
      4 C        0.000     -0.020      2.721      0.129     -0.006      0.000
      5 C        2.567     -0.519      3.657     -1.041      0.186      0.000
      7 C        0.000      0.000      0.000      0.000      0.000      0.000
      8 C        0.000      0.000      0.000      0.000      0.000      0.000
      9 C        0.000      0.000      0.000      0.000      0.000      0.000
     10 C       -0.302     -0.009      0.000      0.000      0.000      0.000
     11 C        0.000      0.000      0.000      0.000      0.000      0.000
     12 C        0.000      0.000      0.000      0.000      0.000      0.000
     13 H        0.000      0.000      0.000      0.000      0.000      0.000
     14 C        0.000      0.000      0.000      0.000      0.000      0.000
     15 H        0.000      0.000      0.000      0.000      0.000      0.000
     16 C        0.000      0.000      0.000      0.000      0.000      0.000
     17 C        0.000      0.000      0.000      0.000      0.000      0.000
     18 C        0.000      0.000      0.000      0.000      0.000      0.000
     19 H        0.000      0.000      0.000      0.000      0.000      0.000
     20 C        0.000      0.000      0.000      0.000      0.000      0.000
     21 C        0.000      0.000      0.000      0.000      0.000      0.000
     22 H        0.000      0.000      0.000      0.000      0.000      0.000
     23 C        0.000      0.000      0.000      0.000      0.000      0.000
     24 H        0.000      0.000      0.000      0.000      0.000      0.000
     25 C        0.000      0.000      0.000      0.000      0.000      0.000
     26 H        0.000      0.000      0.000      0.000      0.000      0.000
     27 C        0.000      0.000      0.000      0.000      0.000      0.000
     28 C        0.000      0.000      0.000      0.000      0.000      0.000
     29 H        0.000      0.000      0.000      0.000      0.000      0.000
     30 C      237.209     -1.349      0.273     -0.253      0.086      0.206
     31 C       -2.515      6.503     -0.668      0.542      0.124     -0.144
     32 H        6.762      1.823      0.051     -0.019      0.065      0.000
     33 C        8.704     -1.285      0.016     -0.006      0.047      0.000
     34 H       -1.713      0.760      0.000      0.000      0.017      0.000
     35 C       -2.559      7.908      0.000      0.070      0.102      0.000
     36 H        7.665      1.170      0.000      0.000     -0.046      0.000
     37 C      266.152     -1.957      0.023      0.010     -0.040      0.045
     38 C        0.000    219.374     -0.665      0.528      0.418      0.027
     39 H      219.374      0.000      0.126      0.122     -0.054      0.017
     40 C       -0.665      0.126      0.000    239.938     -1.084     -2.009
     41 C        0.528      0.122    239.938      0.000    218.932    268.272
     42 H        0.418     -0.054     -1.084    218.932      0.000     -2.563
     43 C        0.027      0.017     -2.009    268.272     -2.563      0.000
     44 H        0.060      0.000      8.324     -0.861      7.124    220.331
     45 C        0.000      0.001     10.453     -3.337      7.927    264.563
     46 H        0.000      0.000     -1.929      7.706      1.106     -1.154
     47 C        0.000      0.016     -1.598      9.193     -1.374     -1.657
     48 C        0.285      0.074    237.475     -3.927      6.580      8.595
     49 H       -0.095      0.027     -1.972      6.376      1.961     -1.288
     50 H        0.354      0.006      0.000      0.000      0.045      0.000
     51 H        0.000      0.000      0.000      0.000      0.000      0.000
     52 H        0.000      0.000      0.000      0.000      0.000      0.000
     53 H        0.000      0.000      8.123     -1.690      0.776      7.791
     54 H        0.000      0.000      0.000      0.000      0.000      0.000
     55 H        0.000      0.000      0.000      0.000      0.000      0.000
     56 H       -1.104      6.812      0.000      0.071     -0.007      0.000
                 44 H       45 C       46 H       47 C       48 C       49 H  
      0 C        0.000      0.000      0.000     -0.452      3.652     -0.631
      1 C        1.188     -1.782      0.000      3.900     -7.062      3.697
      2 C        0.000      0.000      0.000      0.000      0.609     -0.092
      4 C        0.000      0.000      0.000      0.000     -0.185      0.037
      5 C        0.000      0.000      0.000      0.000     -0.193      0.243
      7 C        0.000      0.000      0.000      0.000      0.000      0.000
      8 C        0.000      0.000      0.000      0.000      0.000      0.000
      9 C        0.000      0.000      0.000      0.000      0.000      0.000
     10 C        0.000      0.000      0.000      0.000      0.000      0.000
     11 C        0.000      0.000      0.000      0.000      0.000      0.000
     12 C        0.000      0.000      0.000      0.000      0.000      0.000
     13 H        0.000      0.000      0.000      0.000      0.000      0.000
     14 C        0.000      0.000      0.000      0.000      0.000      0.000
     15 H        0.000      0.000      0.000      0.000      0.000      0.000
     16 C        0.000      0.000      0.000      0.000      0.000      0.000
     17 C        0.000      0.000      0.000      0.000      0.000      0.000
     18 C        0.000      0.000      0.000      0.000      0.000      0.000
     19 H        0.000      0.000      0.000      0.000      0.000      0.000
     20 C        0.000      0.000      0.000      0.000      0.000      0.000
     21 C        0.000      0.000      0.000      0.000      0.000      0.000
     22 H        0.000      0.000      0.000      0.000      0.000      0.000
     23 C        0.000      0.000      0.000      0.000      0.000      0.000
     24 H        0.000      0.000      0.000      0.000      0.000      0.000
     25 C        0.000      0.000      0.000      0.000      0.000      0.000
     26 H        0.000      0.000      0.000      0.000      0.000      0.000
     27 C        0.000      0.000      0.000      0.000      0.000      0.000
     28 C        0.000      0.000      0.000      0.000      0.000      0.000
     29 H        0.000      0.000      0.000      0.000      0.000      0.000
     30 C       -0.017      0.000      0.000      0.000     -0.414      0.135
     31 C        0.125      0.000      0.000      0.000      0.000      0.000
     32 H        0.000      0.000      0.000      0.000      0.000      0.000
     33 C        0.000      0.000      0.000      0.000      0.000      0.000
     34 H        0.000      0.000      0.000      0.000      0.000      0.000
     35 C        0.000      0.000      0.000      0.000      0.000      0.000
     36 H        0.000      0.000      0.000      0.000      0.000      0.000
     37 C        0.031      0.000      0.000      0.000      0.000      0.000
     38 C        0.060      0.000      0.000      0.000      0.285     -0.095
     39 H        0.000      0.001      0.000      0.016      0.074      0.027
     40 C        8.324     10.453     -1.929     -1.598    237.475     -1.972
     41 C       -0.861     -3.337      7.706      9.193     -3.927      6.376
     42 H        7.124      7.927      1.106     -1.374      6.580      1.961
     43 C      220.331    264.563     -1.154     -1.657      8.595     -1.288
     44 H        0.000     -1.330      6.604      7.850     -1.680      0.740
     45 C       -1.330      0.000    220.013    262.500     -2.650      7.934
     46 H        6.604    220.013      0.000     -1.121      7.623      1.153
     47 C        7.850    262.500     -1.121      0.000    273.354     -2.246
     48 C       -1.680     -2.650      7.623    273.354      0.000    220.059
     49 H        0.740      7.934      1.153     -2.246    220.059      0.000
     50 H        0.000      0.000      0.000      0.000      0.000      0.000
     51 H        0.000      0.000      0.000      0.000      0.000      0.000
     52 H        0.000      0.000      0.000      0.000      0.000      0.000
     53 H        1.280     -1.234      6.616    220.596     -1.210      7.064
     54 H        0.000      0.000      0.000      0.000      0.000      0.000
     55 H        0.000      0.000      0.000      0.000      0.000      0.000
     56 H        0.000      0.000      0.000      0.000      0.000      0.000
                 50 H       51 H       52 H       53 H       54 H       55 H  
      0 C        4.125      0.990      0.000      0.000      0.000      0.000
      1 C       -0.855      0.223      0.000      0.468      0.000      0.000
      2 C        7.205     -1.920      8.223      0.000      0.000      0.000
      4 C        1.412      3.421      0.969      0.000      0.000      0.000
      5 C       -1.594      6.472     -1.430      0.000      0.000      0.000
      7 C       -1.135    221.209     -2.150      0.000      0.000      0.000
      8 C        7.125     -2.117    218.826      0.000      0.000      0.000
      9 C       -2.347      8.571     -0.680      0.000      0.563      0.000
     10 C      211.229     -1.558      5.921      0.000      0.000      0.000
     11 C        3.560      0.613      3.067      0.000      7.905      0.000
     12 C       -0.459      0.000     -0.082      0.000     -1.399      0.000
     13 H        0.179      0.019     -0.187      0.000      0.689      0.000
     14 C        0.215      0.000      0.154      0.000      6.688      0.000
     15 H        0.000      0.000      0.022      0.000      2.007      0.000
     16 C       -0.234      0.000     -0.165      0.000     -1.068      0.627
     17 C        0.218      0.000      0.158      0.000    213.866      0.000
     18 C       -0.298      0.000     -0.409      0.000     -2.293      0.000
     19 H       -0.147      0.000      0.142      0.000      7.238      0.000
     20 C        0.000      0.000      0.000      0.000      3.267      7.808
     21 C        0.000      0.000      0.000      0.000     -0.482     -1.711
     22 H        0.000      0.000      0.000      0.000      0.156      0.742
     23 C        0.000      0.000      0.000      0.000      0.158      7.909
     24 H        0.000      0.000      0.000      0.000      0.000      1.304
     25 C        0.000      0.000      0.000      0.000     -0.197     -1.176
     26 H        0.000      0.000      0.000      0.000      0.000      6.562
     27 C        0.000      0.000      0.000      0.000      0.163    219.142
     28 C        0.000      0.000      0.000      0.000     -0.151     -1.412
     29 H        0.000      0.000      0.000      0.000     -0.164      6.967
     30 C       -0.328      0.000      0.000      0.000      0.000      0.000
     31 C        0.353      0.000      0.000      0.000      0.000      0.000
     32 H        0.325      0.000      0.000      0.000      0.000      0.000
     33 C        0.178      0.000      0.000      0.000      0.000      0.000
     34 H       -0.006      0.000      0.000      0.000      0.000      0.000
     35 C        0.015      0.000      0.000      0.000      0.000      0.000
     36 H        0.000      0.000      0.000      0.000      0.000      0.000
     37 C        0.008      0.000      0.000      0.000      0.000      0.000
     38 C        0.354      0.000      0.000      0.000      0.000      0.000
     39 H        0.006      0.000      0.000      0.000      0.000      0.000
     40 C        0.000      0.000      0.000      8.123      0.000      0.000
     41 C        0.000      0.000      0.000     -1.690      0.000      0.000
     42 H        0.045      0.000      0.000      0.776      0.000      0.000
     43 C        0.000      0.000      0.000      7.791      0.000      0.000
     44 H        0.000      0.000      0.000      1.280      0.000      0.000
     45 C        0.000      0.000      0.000     -1.234      0.000      0.000
     46 H        0.000      0.000      0.000      6.616      0.000      0.000
     47 C        0.000      0.000      0.000    220.596      0.000      0.000
     48 C        0.000      0.000      0.000     -1.210      0.000      0.000
     49 H        0.000      0.000      0.000      7.064      0.000      0.000
     50 H        0.000      0.714      1.768      0.000      0.007      0.000
     51 H        0.714      0.000      7.449      0.000      0.000      0.000
     52 H        1.768      7.449      0.000      0.000      0.000      0.000
     53 H        0.000      0.000      0.000      0.000      0.000      0.000
     54 H        0.007      0.000      0.000      0.000      0.000      0.014
     55 H        0.000      0.000      0.000      0.000      0.014      0.000
     56 H       -0.015      0.000      0.000      0.000      0.000      0.000
                 56 H  
      0 C        0.726
      1 C        0.000
      2 C        0.000
      4 C        0.000
      5 C        0.000
      7 C        0.000
      8 C        0.000
      9 C        0.000
     10 C        0.000
     11 C        0.000
     12 C        0.000
     13 H        0.000
     14 C        0.000
     15 H        0.000
     16 C        0.000
     17 C        0.000
     18 C        0.000
     19 H        0.000
     20 C        0.000
     21 C        0.000
     22 H        0.000
     23 C        0.000
     24 H        0.000
     25 C        0.000
     26 H        0.000
     27 C        0.000
     28 C        0.000
     29 H        0.000
     30 C        8.182
     31 C       -1.736
     32 H        0.772
     33 C        7.929
     34 H        1.279
     35 C       -1.289
     36 H        6.675
     37 C      218.905
     38 C       -1.104
     39 H        6.812
     40 C        0.000
     41 C        0.071
     42 H       -0.007
     43 C        0.000
     44 H        0.000
     45 C        0.000
     46 H        0.000
     47 C        0.000
     48 C        0.000
     49 H        0.000
     50 H       -0.015
     51 H        0.000
     52 H        0.000
     53 H        0.000
     54 H        0.000
     55 H        0.000
     56 H        0.000

Maximum memory used throughout the entire EPRNMR-calculation: 2990.7 MB

Timings for individual modules:

Sum of individual times         ...    15346.588 sec (= 255.776 min)
GTO integral calculation        ...       16.671 sec (=   0.278 min)   0.1 %
SCF iterations                  ...      102.218 sec (=   1.704 min)   0.7 %
EPR/NMR calculation             ...    15227.699 sec (= 253.795 min)  99.2 %



                             ****ORCA TERMINATED NORMALLY****
TOTAL RUN TIME: 0 days 8 hours 44 minutes 46 seconds 704 msec
